/*--------------------------------*- C++ -*----------------------------------*\
| =========                 |                                                 |
| \\      /  F ield         | OpenFOAM: The Open Source CFD Toolbox           |
|  \\    /   O peration     | Version:  2412                                  |
|   \\  /    A nd           | Website:  www.openfoam.com                      |
|    \\/     M anipulation  |                                                 |
\*---------------------------------------------------------------------------*/
FoamFile
{
    version     2.0;
    format      ascii;
    arch        "LSB;label=32;scalar=64";
    class       volScalarField;
    location    "0.2";
    object      T;
}
// * * * * * * * * * * * * * * * * * * * * * * * * * * * * * * * * * * * * * //

dimensions      [0 0 0 1 0 0 0];

internalField   nonuniform List<scalar> 
400
(
300.002
300.005
300.009
300.014
300.02
300.028
300.038
300.049
300.061
300.074
300.087
300.098
300.107
300.111
300.109
300.1
300.085
300.065
300.04
300.014
300.005
300.016
300.029
300.045
300.066
300.091
300.123
300.159
300.199
300.241
300.282
300.319
300.347
300.359
300.353
300.325
300.277
300.21
300.131
300.044
300.01
300.03
300.055
300.085
300.124
300.173
300.233
300.302
300.379
300.46
300.541
300.614
300.668
300.694
300.682
300.629
300.535
300.406
300.252
300.085
300.016
300.049
300.089
300.14
300.204
300.286
300.386
300.502
300.632
300.77
300.909
301.034
301.129
301.175
301.158
301.069
300.909
300.69
300.428
300.144
300.024
300.076
300.138
300.216
300.316
300.444
300.6
300.785
300.991
301.212
301.433
301.636
301.791
301.869
301.846
301.708
301.455
301.104
300.684
300.23
300.036
300.113
300.204
300.32
300.47
300.661
300.897
301.175
301.489
301.825
302.164
302.477
302.718
302.844
302.816
302.612
302.229
301.693
301.049
300.353
300.052
300.162
300.293
300.46
300.676
300.952
301.293
301.698
302.156
302.647
303.144
303.604
303.962
304.155
304.125
303.837
303.285
302.5
301.55
300.521
300.074
300.228
300.411
300.643
300.944
301.329
301.806
302.373
303.014
303.703
304.401
305.048
305.555
305.836
305.811
305.425
304.662
303.561
302.213
300.744
300.102
300.315
300.563
300.877
301.283
301.802
302.445
303.208
304.072
305
305.938
306.809
307.498
307.892
307.883
307.391
306.385
304.9
303.056
301.028
300.139
300.427
300.757
301.169
301.7
302.376
303.21
304.199
305.317
306.516
307.728
308.854
309.755
310.288
310.314
309.722
308.453
306.53
304.093
301.38
300.188
300.571
301.002
301.531
302.203
303.052
304.094
305.325
306.715
308.205
309.711
311.115
312.254
312.957
313.05
312.381
310.85
308.453
305.335
301.804
300.253
300.761
301.315
301.976
302.801
303.832
305.086
306.56
308.219
310.001
311.805
313.5
314.903
315.813
316.018
315.317
313.552
310.668
306.796
302.308
300.345
301.019
301.723
302.535
303.523
304.734
306.189
307.886
309.791
311.84
313.929
315.914
317.6
318.76
319.14
318.476
316.537
313.187
308.502
302.907
300.481
301.389
302.285
303.27
304.429
305.814
307.449
309.333
311.439
313.706
316.037
318.292
320.269
321.721
322.347
321.816
319.799
316.04
310.507
303.628
300.698
301.955
303.112
304.311
305.661
307.221
309.014
311.043
313.286
315.693
318.186
320.647
322.886
324.647
325.588
325.307
323.349
319.292
312.91
304.53
301.078
302.894
304.435
305.927
307.518
309.276
311.215
313.349
315.663
318.096
320.613
323.139
325.533
327.556
328.843
328.933
327.217
323.048
315.883
305.735
301.808
304.587
306.735
308.668
310.601
312.614
314.689
316.853
319.108
321.437
323.818
326.208
328.517
330.588
332.136
332.684
331.44
327.464
319.719
307.5
303.401
307.915
311.04
313.635
315.939
318.127
320.247
322.33
324.397
326.456
328.505
330.519
332.473
334.291
335.791
336.608
336.026
332.74
324.906
310.406
307.543
315.114
319.465
322.553
325.037
327.17
329.065
330.793
332.403
333.93
335.387
336.764
338.079
339.316
340.395
341.105
340.959
338.848
332.28
315.847
321.567
331.34
335.63
338.145
339.836
341.076
342.045
342.841
343.525
344.136
344.69
345.192
345.659
346.092
346.474
346.739
346.704
345.821
342.156
327.997
)
;

boundaryField
{
    movingWall
    {
        type            fixedValue;
        value           uniform 350;
    }
    fixedWalls
    {
        type            fixedValue;
        value           uniform 300;
    }
    frontAndBack
    {
        type            empty;
    }
}


// ************************************************************************* //
